LAMMPS data file via write_data, version 22 Dec 2022, timestep = 10000000

8000 atoms
1 atom types
7968 bonds
1 bond types

0 21 xlo xhi
0 21.34187 ylo yhi
0 21 zlo zhi
0 0 0 xy xz yz

Masses

1 1

Pair Coeffs # lj/cut/intel

1 1 1

Bond Coeffs # fene/intel

1 30 1.5 1 1

Atoms # bond

7332 30 1 1.3879909044991074 2.0505471041141767 5.114778113327974 1 1 0
5241 21 1 3.5141216073441965 2.7170368837571597 0.5729465318339076 2 0 0
5672 23 1 0.614358605457997 1.2238911731843505 0.06022602153758005 2 0 0
1595 7 1 5.108390887283207 1.2795393889129902 1.6286651967435575 1 0 0
7322 30 1 4.4379297360823795 2.690125529583476 3.6930489462346348 1 1 0
1613 7 1 3.1616076496224026 0.8243151257063268 1.8398120918289904 1 0 0
1618 7 1 3.7475460054876115 1.9258649759741184 3.196255988014892 1 0 0
1593 7 1 4.541717575994439 0.16960963952489377 0.9600424780610768 1 0 0
7309 30 1 3.3892562279091942 0.22851505914780423 3.5035957710752728 1 1 0
1116 5 1 0.8676793962265558 3.0205804795562736 1.380037881980858 1 0 0
5235 21 1 1.6719363669389495 3.0461571165336103 4.863729034938391 2 0 0
2014 9 1 1.4201496025319673 1.218504168136721 1.53810894790658 1 0 -1
7311 30 1 3.287770817821274 0.8730373048545396 4.72687806488213 1 1 0
3457 14 1 0.05756097089908024 0.3567329602540949 1.8632002150144882 1 1 -1
5240 21 1 4.002626892190142 3.025067752773112 1.3451539420211058 2 0 0
1616 7 1 3.7712699900425686 1.8774226273566847 1.2949150120831 1 0 0
1612 7 1 2.6882482345840124 0.04928827321859174 1.562176968670971 1 0 0
1619 7 1 4.11427058117967 1.4722978829254934 3.9294722660400816 1 0 0
7329 30 1 2.2428214101634922 2.135401174800375 4.37975590464517 1 1 0
1620 7 1 4.761719040854771 1.2533455254737764 3.215835368310051 1 0 0
5674 23 1 1.875097681849892 0.27801188507129077 0.9854885931034029 2 0 0
7308 30 1 3.6269430697819414 0.7522478330774669 2.761781728644515 1 1 0
7334 30 1 0.15410309716853182 1.873210049833584 5.148717487266778 1 1 0
1596 7 1 4.641526687081841 0.7590591566383152 2.2969219567452006 1 0 0
7327 30 1 3.407554117381443 2.0110854051524436 4.397255484503852 1 1 0
6142 25 1 1.5244749954550658 1.5469447838866917 4.173911215356108 1 0 0
1614 7 1 2.655428661047472 1.0688793042952476 1.1136723616629698 1 0 0
1115 5 1 0.6410019736836442 2.2069716812469737 1.781205687636094 1 0 0
5830 24 1 0.5828616130444269 1.9226460608464626 3.806355693275 2 -1 0
5732 23 1 4.483158394078309 0.5060397786910804 4.299054866971719 2 0 0
7328 30 1 2.783542725827293 1.522367048504997 3.8319800232092787 1 1 0
1615 7 1 2.8684866618178266 2.061552433687664 1.0900130505904324 1 0 0
2011 9 1 1.1164732664132573 2.157289412535194 0.8194407582617971 1 0 -1
7330 30 1 2.544379209862681 2.0130347203615995 5.231180082013585 1 1 0
6139 25 1 0.698718365896078 1.0640305042514144 2.9578108869412367 1 0 0
1611 7 1 2.2191943009701567 0.530039790611186 2.1762847835187276 1 0 0
1609 7 1 2.2876482411941446 0.052922170639749286 3.1547897779670517 1 0 0
2010 9 1 0.6116948517021902 2.632981305058701 0.10024211227215543 1 0 -1
5232 21 1 1.4714102639980413 2.4637580695596446 2.5678422276877075 2 0 0
5675 23 1 0.9503600943876606 0.061266661328973036 0.6447798295184881 2 0 0
1617 7 1 3.8918026028037067 1.703049594353441 2.215690553121505 1 0 0
7337 30 1 0.31954986283034215 0.3025130554357888 4.917022483686988 1 1 0
1594 7 1 4.298207291079634 1.0250954451274539 1.1662495166507625 1 0 0
2013 9 1 2.21769937823513 1.6593382966968924 1.9471111921066804 1 0 -1
7336 30 1 0.38034475283344366 1.0971231801894412 4.445437531045021 1 1 0
5085 21 1 4.8552686837641925 2.436628228627961 1.2663952160001153 1 0 0
6138 25 1 0.15245189300959355 1.810142073579638 2.6620826659224175 1 0 0
4426 18 1 4.588880120395959 2.448054172607573 0.24545812664619093 1 0 1
5083 21 1 4.4526502741846405 2.7309197703503596 2.453749423134546 1 0 0
6140 25 1 1.4057509825439205 1.4687471135283632 2.525240267285469 1 0 0
2015 9 1 1.1719754042956163 0.2672182233801429 1.7032473646468504 1 0 -1
1610 7 1 2.4230111673051553 0.9864374054342899 2.993161758180797 1 0 0
5233 21 1 1.1042960294476913 2.910201050845748 3.347170423447018 2 0 0
5739 23 1 0.7549181777257453 0.0769827170565062 3.8409664310070126 2 0 0
5228 21 1 2.1163682754260815 2.535068551157762 0.31265038000430795 2 0 0
6141 25 1 1.7999720241247235 1.8185603149049696 3.322485253741885 1 0 0
5239 21 1 3.3425477677373823 2.6649175713206383 1.9703043803048674 2 0 0
5088 21 1 5.245867050337165 2.1996320391091406 3.216318158408568 1 0 0
7310 30 1 2.6334579743895143 0.5209699581897901 4.146266733786752 1 1 0
5731 23 1 4.562842265504306 1.2604787664325352 4.838422559563138 2 0 0
5238 21 1 2.8346696370235533 2.194301097045503 2.6487874130666262 2 0 0
2012 9 1 1.7274579016809082 2.3154809466520225 1.505726220414678 1 0 -1
6143 25 1 1.3479006651191503 0.6667774511177499 4.489856819797991 1 0 0
6144 25 1 1.5183133139730036 0.10860081317228396 5.223373035668519 1 0 0
5237 21 1 2.5983152443229907 2.666972315660213 3.5202485887049417 2 0 0
5673 23 1 1.5110627071162952 1.0377987813002925 0.38026451432308017 2 0 0
4452 18 1 3.5233071824434887 0.28868051158358415 0.33201621735217723 1 0 1
7325 30 1 4.438475244316071 2.4077076973002574 4.742496185177776 1 1 0
7319 30 1 2.749379746789799 3.0064815862462444 4.766480065383054 1 1 0
3458 14 1 0.02852018328407431 0.13253402720937016 2.797363150808213 1 1 -1
5538 23 1 1.51921392562997 2.0435932344454404 10.378702606975834 2 0 -1
7313 30 1 2.495615192754598 0.5625336512438949 5.865777039549739 1 1 0
7315 30 1 1.661836905537319 2.1147941123179685 6.4405127961475355 1 1 0
7350 30 1 0.9556302858776907 0.6313355466490673 6.99417472369981 1 1 0
7352 30 1 1.9620796472941369 1.1310668605590697 8.10113229048546 1 1 0
3356 14 1 3.575374241045954 2.2474122469382123 8.443019442586397 1 1 -1
3573 15 1 4.283857765000697 0.7184930359717343 8.09595327540291 1 1 0
7316 30 1 2.4229753451673917 2.618171427795823 6.169060721583027 1 1 0
5729 23 1 4.319688367524382 0.6711040534759661 6.125122923857723 2 0 0
4699 19 1 4.774559502803348 1.9909326125877482 8.54242219408568 1 0 0
7312 30 1 3.260274119800818 1.1400047500987374 5.6527651647682235 1 1 0
5825 24 1 0.7752859488943679 1.5154674797414316 6.482383270703948 2 -1 0
3357 14 1 3.558265638594235 2.6533511612467335 7.612264731766133 1 1 -1
343 2 1 4.9826186513219195 2.2826170963106827 9.647072222776675 1 0 0
5548 23 1 1.6531724209260685 2.8187427925523227 8.596135506717012 2 0 -1
344 2 1 4.1027431936382355 2.509329803733876 9.31579928372643 1 0 0
7331 30 1 1.9051391719915618 1.2222598280431591 5.2639324098212885 1 1 0
5822 24 1 0.5420391589321378 1.1614676243176325 8.196898331102105 2 -1 0
7351 30 1 1.6302720593820876 1.2055784256963513 7.243772047419231 1 1 0
3352 14 1 2.3997793659173525 1.898196456345754 9.842016913553131 1 1 -1
342 2 1 4.560146926673226 1.4787863405129749 9.903465942186862 1 0 0
3354 14 1 2.4091512217236315 1.0118147101165023 9.216841995567055 1 1 -1
7333 30 1 0.7417402324011588 2.3726583805422057 5.770639244693806 1 1 0
5537 23 1 0.7974178796694293 1.5838598340605576 9.954779117489625 2 0 -1
5539 23 1 1.8958558434338888 2.7288400313647 9.864252278301684 2 0 -1
5824 24 1 0.7369555308128233 2.283280411426906 7.071403275358389 2 -1 0
345 2 1 3.5522621172528877 1.9599489127571097 9.952375771040632 1 0 0
3364 14 1 3.295672421704879 1.1795912847437509 7.8150883318669075 1 1 -1
4696 19 1 4.800627317514219 2.998796145526102 8.230492430103135 1 0 0
4697 19 1 4.856374597278367 2.3827680689561315 7.510534108460501 1 0 0
3366 14 1 2.5487183918087397 0.22977429085158593 8.179145935759841 1 1 -1
7338 30 1 0.37121063149760786 0.08393033187082467 5.841510169849797 1 1 0
3353 14 1 1.6749650786769135 1.5843314590364626 9.296785096354114 1 1 -1
346 2 1 2.975570948876406 1.3650885565551305 10.453982016767645 1 0 0
3571 15 1 3.6111813301202327 0.2552299343335434 7.3538216644261984 1 1 0
339 2 1 3.3786465066430384 0.36424867510315295 9.895207739718636 1 0 0
5817 24 1 3.110127736343797 2.8695384926346468 9.286545726869484 2 -1 0
5536 23 1 1.2394562898610133 0.7857807102586126 9.742681675892678 2 0 -1
5535 23 1 0.2997781217407961 0.7174408570200652 9.541479793281656 2 0 -1
7354 30 1 1.5840794831332294 0.23564310294282145 8.854824671967828 1 1 0
5819 24 1 2.5671722610959455 2.9520511646415355 7.452763003750926 2 -1 0
7314 30 1 2.3287453116097847 1.480248379556574 6.3502472805979435 1 1 0
340 2 1 4.26994328326516 0.22004000652959438 10.217508175370762 1 0 0
3355 14 1 3.0622058495965763 1.6940185878845713 9.046144867363305 1 1 -1
5823 24 1 0.2119313103030847 1.461282222221293 7.349263158940932 2 -1 0
5547 23 1 0.9346046216254758 2.5073269481310816 9.21351361737462 2 0 -1
5816 24 1 3.3122344400314785 2.9688927849193134 10.209138333947603 2 -1 0
5821 24 1 1.2415034416594264 1.8115475542291353 8.063684187823537 2 -1 0
3574 15 1 4.098290306241252 1.1229657182318813 8.963601787032399 1 1 0
4698 19 1 4.234166051670232 1.729822562615905 7.8666051156812005 1 0 0
3360 14 1 3.6863647324961866 2.3664766669597506 6.54086728807305 1 1 -1
5820 24 1 1.7823341724783046 2.459389959804345 7.510537764336509 2 -1 0
3570 15 1 3.149457497267575 0.4230287615935784 6.537359173054584 1 1 0
5730 23 1 5.085501562736076 0.8344740494046611 5.479204395743947 2 0 0
3361 14 1 4.4481583686989925 2.0585943614401083 6.03956135643392 1 1 -1
7353 30 1 1.3778255002187028 0.38099082010222834 7.910644124506997 1 1 0
7326 30 1 3.6737910866654757 2.0921828088258825 5.317317023396099 1 1 0
3363 14 1 3.6611767937587416 1.3254074958155115 6.905649714053332 1 1 -1
3575 15 1 4.880007855389271 0.5675129043096507 9.004452997643146 1 1 0
7349 30 1 1.2218439121039424 0.7034265823839169 6.103042722081773 1 1 0
3362 14 1 4.592329890254941 1.6145011128094446 6.875176252588469 1 1 -1
3365 14 1 3.277149716186562 0.6868377119236728 8.656541470928309 1 1 -1
5546 23 1 0.09458228459215803 2.8417805864594707 9.603355786305867 2 0 -1
7335 30 1 0.7486023341299856 1.1232982109617469 5.328489897540434 1 1 0
5549 23 1 0.917032097171431 3.031348636049885 8.004690663874495 2 0 -1
6514 27 1 4.735206393886676 1.6803343940633026 14.464534862485822 1 0 0
7361 30 1 0.6749503811071509 1.5803826251285942 11.044517809691802 1 1 0
3348 14 1 5.165473904378647 2.131594148893783 10.611263865226702 1 1 -1
349 2 1 1.714543694952199 1.0906061418714104 11.866379394691757 1 0 0
6197 25 1 2.949483190957221 0.5058983797249669 13.347387725643241 1 0 0
350 2 1 1.2011751066129406 1.4543541735312402 12.590108413173333 1 0 0
6516 27 1 4.264635147781748 0.6740366456045994 15.228466534544532 1 0 0
7369 30 1 4.99988890524974 2.043778616921155 12.390843610281358 1 1 0
7365 30 1 2.724733031457198 0.2175393352350496 12.354389210394558 1 1 0
6200 25 1 3.8961485173177373 1.5524871196596783 13.424908858732488 1 0 0
6254 26 1 0.9057521909942675 0.23486775793733167 15.259581308763535 1 1 0
5801 24 1 3.0744385647530263 1.7959104399859693 12.63247805870417 2 -1 0
5797 24 1 2.01962426979279 0.14875059312312963 13.101726911598247 2 -1 0
348 2 1 2.5195824282310264 1.4986295611176454 11.55163042224645 1 0 0
6260 26 1 0.3746926994042583 2.277721461357483 15.315780331435917 1 1 0
3874 16 1 4.674492821455324 2.9048996772364077 13.394280386112495 1 1 -1
3875 16 1 4.045647633467683 2.4154849228796516 12.741243685923958 1 1 -1
3876 16 1 3.9896808608958443 1.8386338487891853 12.002118090017172 1 1 -1
5642 23 1 3.3577687088746724 1.607738153632728 15.483449067596371 2 0 -1
352 2 1 1.1938944569255203 0.2981394085349863 12.517924297695176 1 0 0
5303 22 1 0.04667097901873457 1.8612155457858182 14.294879677651426 1 0 0
6202 25 1 4.761051146593657 0.7391018374987458 14.190335444360324 1 0 0
3351 14 1 2.5137603689181067 2.2596067855848454 10.734288057623841 1 1 -1
3859 16 1 4.895247648417123 2.8721999726558796 11.59923240596583 1 1 -1
3350 14 1 3.3517624473154757 2.167778729868378 11.115752347561717 1 1 -1
5302 22 1 0.9612325772410282 1.8205275175730893 14.136661228209684 1 0 0
5298 22 1 1.6389604994435578 2.2663305520079406 11.4652509059514 1 0 0
7366 30 1 3.367702149338954 0.8714765701424352 12.356306513920101 1 1 0
5301 22 1 0.8860970898980876 2.2044013698871656 13.216675075652288 1 0 0
3877 16 1 3.7116602517929085 1.2313375149027528 11.30072617873633 1 1 -1
5304 22 1 0.3962214731960091 2.7231757942348804 14.043592908829456 1 0 0
6199 25 1 3.453956053377797 2.0100619177684163 14.145922920582322 1 0 0
1228 5 1 1.7158202370138727 2.3373793759903396 14.694254393133244 1 0 -1
351 2 1 0.8009789450610051 0.8384979523391395 13.173950051908548 1 0 0
7360 30 1 0.696617399475642 0.9111161443385256 11.711783045216798 1 1 0
5799 24 1 2.2111346734373285 1.1287910504737508 12.836253342758434 2 -1 0
5800 24 1 2.169938509970156 2.063388837926983 12.49969489927509 2 -1 0
5640 23 1 4.805702154364089 1.7405366226138956 15.496135522332814 2 0 -1
6256 26 1 2.8066094312702723 0.46903489013024147 15.254660168303284 1 1 0
6198 25 1 2.993871983032171 1.1766547664041214 13.989102171944571 1 0 0
6257 26 1 2.24349637248867 0.540628317282592 14.478115202719104 1 1 0
7359 30 1 0.3267086556496492 0.06989215155309664 11.357030144635672 1 1 0
5639 23 1 4.85404879475944 2.627514734835292 15.210134372991144 2 0 -1
6515 27 1 3.84593572399817 1.279605396531597 14.653405814576619 1 0 0
3878 16 1 3.232285131828206 0.5187433373804339 11.034749695806624 1 1 -1
6201 25 1 3.894358860930699 0.6396244900303073 13.736126639916105 1 0 0
5798 24 1 1.7053403813119778 0.8717137745371446 13.589772761676086 2 -1 0
6255 26 1 1.8810498794779529 0.24769417276447894 15.413991828955899 1 1 0
5299 22 1 0.8883363366357392 2.1657200124317715 11.975157215140717 1 0 0
5300 22 1 1.1185943314801994 2.9205682653536953 12.577724534726816 1 0 0
6259 26 1 0.8237826379296387 1.5268936139883735 15.132874332317934 1 1 0
6258 26 1 1.4563451919574144 1.1007695820750036 14.577394979634109 1 1 0
7362 30 1 0.7799148036016996 0.7074656917441042 10.663694087095939 1 1 0
5641 23 1 4.012772006372278 2.2686810123856658 15.60479656180096 2 0 -1
7367 30 1 4.160065256018284 0.48821107421743704 12.738250176164483 1 1 0
5297 22 1 2.3055780939129487 2.9313631692206914 11.623013765791018 1 0 0
7370 30 1 4.9645320602474055 1.4461553565530698 11.609084067054948 1 1 0
347 2 1 2.1105059066849687 1.0624790585094939 10.732128634474087 1 0 0
1231 5 1 2.890938788598366 2.613244348685391 15.547879092528829 1 0 -1
5802 24 1 2.6819707443673684 2.0393494123303393 13.481773823207607 2 -1 0
1229 5 1 2.5058423351076544 1.8755714082050563 14.61109565415738 1 0 -1
5293 22 1 3.5052683913488645 2.9284894639786083 13.56533719547916 1 0 0
341 2 1 4.585883576772617 0.9912463797905351 10.739952329594992 1 0 0
5363 22 1 1.6007855000234845 2.6932639752358583 15.657270119652415 1 0 0
3349 14 1 4.246617636241437 2.0517901853370812 10.86570438924527 1 1 -1
354 2 1 0.1174788462965248 0.7596680610702872 12.44642974102353 1 0 0
7371 30 1 4.947726251026196 0.5183078958759565 11.760896372886231 1 1 0
1230 5 1 2.8327366670137284 2.745876552789134 14.61297773691799 1 0 -1
7368 30 1 4.6631431587128045 1.2908237164747218 12.848080429239348 1 1 0
7372 30 1 5.056279030261502 0.15131041212641497 10.877165961073747 1 1 0
6268 26 1 0.2133393656459469 0.3803344844109656 14.221030796475464 1 1 0
1227 5 1 1.9664140580755622 2.6609484476073115 13.889452324924966 1 0 -1
5803 24 1 2.5709580066763147 2.9137590822721204 13.07457626081856 2 -1 0
7363 30 1 1.5362419888147572 0.34245142782750726 11.244826288533018 1 1 0
5362 22 1 2.00350542914507 1.808148107499974 15.67503692563993 1 0 0
5292 22 1 3.9656432922666807 2.8266696967297253 14.362449534602295 1 0 0
5296 22 1 3.0947903976799025 2.636312818867073 12.094666216295536 1 0 0
6206 25 1 5.142717672966644 0.2281006090015956 13.265355680297565 1 0 0
5543 23 1 0.4209560648282722 2.9308492092812206 10.74703029741526 2 0 -1
2006 9 1 1.1796335143905803 1.3726590130188634 18.88818973232869 1 0 -2
5646 23 1 3.9050894326221486 1.7119008464570091 17.334065223451546 2 0 -1
4445 18 1 2.2442226398841862 1.897318873710848 19.28282688573716 1 0 0
7519 31 1 2.5715567693079944 0.6132068777108098 19.70357932008837 1 1 0
5659 23 1 1.2589821484120753 0.9229610045894204 16.114121148475878 2 0 -1
4974 20 1 4.399390106945009 2.478516116437718 16.869879219801504 1 -1 0
4451 18 1 3.1525969685737083 0.3332636571963754 20.437781888627157 1 0 0
4438 18 1 3.128743292449725 2.7615756533207083 18.385892551271027 1 0 0
7510 31 1 5.149136166967322 0.4937755889950194 19.751482144185186 1 1 0
4975 20 1 5.151460555823034 2.1674734768150103 17.448370658989056 1 -1 0
5645 23 1 4.150433217365856 0.8127968926903638 17.081280321178248 2 0 -1
4425 18 1 4.990180308345728 2.958153965115997 20.536282273207153 1 0 0
7516 31 1 3.5085349576296796 1.4350775160527065 20.57306114808981 1 1 0
5671 23 1 0.29164043498659775 1.1900347683957015 20.187507538707397 2 0 -1
5218 21 1 0.6949788247763551 2.886383103540336 19.76387068706635 2 0 -1
5361 22 1 2.525913123621892 1.133566580345851 16.131482040782554 1 0 0
2009 9 1 1.3283678563841952 2.400866515982203 20.545000197267942 1 0 -2
5649 23 1 2.5530328426099085 2.6160096485483515 16.656716579346917 2 0 -1
2001 9 1 0.1487295546761369 1.2907528703190894 19.040928198215397 1 0 -2
2008 9 1 1.4198832682119125 1.4948676323888537 20.33787276951894 1 0 -2
4448 18 1 4.0809249782613115 0.8259240958947135 18.17478657324441 1 0 0
7522 31 1 2.7450089667586153 0.9968731260700838 17.51503244973553 1 1 0
5650 23 1 2.203933710535033 2.8621712912770447 17.51826941268362 2 0 -1
7523 31 1 3.0056963918962927 0.3638381906589689 16.879322807882545 1 1 0
2007 9 1 1.0415869987469393 1.9271109309443064 19.653996945587004 1 0 -2
5219 21 1 0.18532720614224518 2.2435721594055504 20.149317888218985 2 0 -1
1503 7 1 3.6054666129704644 1.8189857213052583 18.408841216853766 1 0 -1
5360 22 1 1.9491963066769875 1.704403026883277 16.71009240725437 1 0 0
4446 18 1 3.1063438161085712 1.426928781311303 19.29297033279941 1 0 0
7515 31 1 4.221381579123183 0.8468259971023232 20.334001312508743 1 1 0
1504 7 1 4.3045085863162615 2.4161417655771893 18.12026406638166 1 0 -1
5660 23 1 0.9038138497562388 0.9608095694875269 16.997097215151364 2 0 -1
4450 18 1 3.562281786552974 0.2764126868713797 19.542858918014677 1 0 0
1502 7 1 4.029655494872162 2.169618070651704 19.181563263265435 1 0 -1
1501 7 1 4.239869127919622 1.2806038062561982 19.361028155542957 1 0 -1
7518 31 1 1.888357240110662 0.6980573971333978 20.368340842641732 1 1 0
7517 31 1 2.53241410805665 1.3434969058443724 20.586451411997498 1 1 0
5245 21 1 3.048196374254123 2.577684520494438 19.46895660432487 2 0 -1
7520 31 1 2.0643126989378597 0.775536638578797 18.849697196612297 1 1 0
5359 22 1 1.109246189747327 2.018693620185879 16.22448944519131 1 0 0
4447 18 1 3.2653744450302677 0.8441278741722823 18.524712462348475 1 0 0
5244 21 1 2.7307051164402143 2.481531444331697 20.371208247864125 2 0 -1
4444 18 1 1.8352345738514788 2.7098074647949786 19.516636227762174 1 0 0
5653 23 1 0.5513668934493335 2.3359937937016224 18.749835990275372 2 0 -1
7525 31 1 3.643874844346354 0.06838985160467376 15.817246554244251 1 1 0
2002 9 1 0.6700993294004934 0.45486196531075657 19.200450200784765 1 0 -2
2005 9 1 1.3773553104182708 0.944523275741201 18.009284603634644 1 0 -2
6518 27 1 4.829626802137005 0.4666158563965669 16.158423711258674 1 0 0
5651 23 1 1.3450930888723232 2.3237013695901645 17.342660814619045 2 0 -1
5658 23 1 0.29680846472168976 0.8563658563066832 16.201408626311505 2 0 -1
5358 22 1 0.4428006206625977 2.5684409426509247 16.71901759724503 1 0 0
7514 31 1 4.721951710539433 0.26318562218062524 20.89949165022557 1 1 0
5643 23 1 3.925756668826268 1.308311490152715 16.234937063627438 2 0 -1
1232 5 1 3.4811167845440116 2.756461800452406 16.349904497041354 1 0 -1
5648 23 1 3.084355462484364 1.8226430259320268 16.564974153199152 2 0 -1
5652 23 1 1.4038417678337172 2.264575082001774 18.358119709998636 2 0 -1
7521 31 1 2.2928920388960705 1.5221200654358975 18.247950418679114 1 1 0
5243 21 1 3.738960329115833 2.44833208393647 20.207582471168276 2 0 -1
5661 23 1 0.3703821293819542 0.5077792201972877 17.63308903271223 2 0 -1
5644 23 1 4.777753947307654 1.4766852350333355 16.681946669068875 2 0 -1
5647 23 1 3.0168471267005668 1.9602890974139742 17.533346503152025 2 0 -1
5662 23 1 0.28808998310044615 1.396195986368838 17.956708503626913 2 0 -1
4449 18 1 4.33419733579737 0.19783550675192138 18.890818470819106 1 0 0
4439 18 1 2.21581204393417 2.760133644739828 18.506025132002847 1 0 0
1505 7 1 5.030335481943995 2.746296418062103 18.679620263788866 1 0 -1
6222 25 1 1.6971716943907558 0.02690485496708084 16.89065628621161 1 0 0
5667 23 1 0.933359636029367 0.11576223647759418 20.214458616488955 2 0 -1
2004 9 1 1.5757228715263072 0.028269024861782406 18.096731715182372 1 0 -2
825 4 1 5.02173810350939 5.652461469148884 4.6763609000132105 1 -1 0
1526 7 1 4.928503908375111 5.9588131257782795 0.6607577487770662 1 0 0
6113 25 1 0.30504712840960324 5.669580425709598 3.2456337669499202 1 0 0
5081 21 1 3.380866603051175 3.621434247901726 2.3368091210644764 1 0 0
7321 30 1 3.890973965049144 3.3009349463274 3.2441088769026303 1 1 0
5075 21 1 3.7102247734210567 5.106983458498118 1.0016829215851595 1 0 0
4019 17 1 2.7173734609624 4.31630317379673 3.0034273112708743 1 -1 0
5076 21 1 2.9169475069907294 5.471238946643219 1.3273824354963604 1 0 0
868 4 1 4.100858789438684 5.214586701266907 2.0051024236121266 1 -1 0
6133 25 1 0.20656152005474906 3.936821392741563 4.565604516307637 1 0 0
5230 21 1 1.779016964326439 3.6585145788980995 1.7322488363741755 2 0 0
1163 5 1 3.3251580408063903 4.358324571233704 3.9117015373317208 1 0 0
4021 17 1 1.3738187048802475 5.109957702692393 3.5803792227876694 1 -1 0
5079 21 1 2.4164693358517373 4.461917898284597 1.5960070179773198 1 0 0
871 4 1 4.8656729015173035 3.836506337153922 3.3429914998169568 1 -1 0
4027 17 1 0.18571847507695458 4.43159753443322 2.1046132346418425 1 -1 0
835 4 1 4.636785047598924 4.713817002950511 4.9098100256046875 1 -1 0
5227 21 1 1.609203832966215 3.303190799072903 0.14004677083413278 2 0 0
4020 17 1 2.2189207674970124 5.134582859541906 3.1256260972705294 1 -1 0
6116 25 1 0.4340413100210934 5.38726730385834 2.246328052311418 1 0 0
4423 18 1 5.0960603155871365 4.589858065484258 0.12961547903736517 1 0 1
869 4 1 4.305135492453826 5.17502788320636 2.93952789825241 1 -1 0
5379 22 1 1.4705309739708432 5.213747172600306 0.5500927641433695 1 0 1
5250 21 1 2.3976329066387816 4.223044768086852 0.6266864969790089 2 0 0
5226 21 1 1.3613794799085657 4.15739143826619 0.4357322194527033 2 0 0
1162 5 1 3.3047795045415533 4.050936689967364 4.788900388868221 1 0 0
7320 30 1 3.568501122180067 3.1056234990643508 4.156847645576884 1 1 0
6115 25 1 0.970534335617177 6.068559643856282 1.9539818876702402 1 0 0
867 4 1 4.994773016214675 5.456759150748044 1.9084118417500489 1 -1 0
5231 21 1 2.1534280445642087 3.1408142073512417 2.487489830878844 2 0 0
872 4 1 4.757991930096938 4.736687848998962 3.743031841286367 1 -1 0
4025 17 1 0.8813514979347493 4.586706110588446 2.936020390300701 1 -1 0
826 4 1 5.163419516061046 5.816144717513311 3.7062562645032893 1 -1 0
6131 25 1 0.9790818393380798 5.409901529221314 5.087164593018794 1 0 0
5380 22 1 1.1846428253522792 4.915310030406686 1.409555420886486 1 0 1
5080 21 1 3.093092261616643 3.7625983105323177 1.4602764410186635 1 0 0
5078 21 1 1.7438115349842278 4.697249756629746 2.272886802203404 1 0 0
5234 21 1 0.9266941557209698 3.1337533960361177 4.277409688867431 2 0 0
1165 5 1 2.531614473553357 5.46671960430764 4.109469816161865 1 0 0
4427 18 1 4.539272636121325 3.3637713734225403 0.5640576081555602 1 0 1
6136 25 1 0.22879993020401312 3.5297863877610363 3.150946534114211 1 0 0
4023 17 1 1.0539026750464557 4.137770936227141 3.9356928885498803 1 -1 0
5072 21 1 3.623707951043368 3.9735808674188298 0.5691470290751358 1 0 0
4022 17 1 1.6549213313798934 4.740164006728415 4.353914224789258 1 -1 0
5071 21 1 4.022268283465903 4.706834398100362 0.09800948140464248 1 0 0
4015 17 1 3.9375221943276175 5.825024690720393 3.989395155923054 1 -1 0
870 4 1 4.941914610712417 4.555589662079566 2.664450015763529 1 -1 0
4018 17 1 3.6567632269486716 4.4164938133863965 2.83684032436006 1 -1 0
5249 21 1 2.7572490920508708 3.5446386789221433 0.06488556262022767 2 0 0
1154 5 1 1.2933017253838113 4.0489812091116 5.192257078016968 1 0 0
1117 5 1 0.7872200856950508 3.9500422241053355 1.2145633604663246 1 0 0
5073 21 1 4.141070650071594 4.033023821775471 1.407408209160329 1 0 0
5074 21 1 4.640249077383282 4.820791754456425 1.0907882806562232 1 0 0
4024 17 1 1.7168442273664581 4.1916449942637835 3.2225874641865366 1 -1 0
5236 21 1 1.9711918813391023 3.2747764538774833 3.971051630091838 2 0 0
5229 21 1 2.2284948822074746 3.1304896438962957 1.0681015142273587 2 0 0
1118 5 1 0.09481257144555194 3.492575344628646 0.8095597017074186 1 0 0
1164 5 1 3.3611990631519157 5.048239080403355 4.515973335927138 1 0 0
7318 30 1 2.3137215692945894 3.896983396021038 4.633498939624827 1 1 0
4017 17 1 3.2300728401170153 5.186872197171372 2.5812411224769773 1 -1 0
6132 25 1 0.40639361009609765 4.8924273353576995 4.514929802094782 1 0 0
5378 22 1 0.794369827552576 5.645216433037593 0.03749434966279582 1 0 1
5077 21 1 2.124408395709028 5.458303078435999 1.8134505162958094 1 0 0
5082 21 1 4.304435671544167 3.7109990330398284 2.3659205900584235 1 0 0
4026 17 1 0.9767564247091495 3.8778147313370446 2.2939017059927593 1 -1 0
4016 17 1 3.437938496110199 5.239589853240931 3.466460978637603 1 -1 0
5381 22 1 0.28896337391934523 5.02769055511058 1.195767840992198 1 0 1
6135 25 1 0.043719274620440444 4.3889545626145035 3.5545960190885495 1 0 0
6130 25 1 1.5151144314487102 6.0821899111199365 4.78744015568766 1 0 0
844 4 1 4.413043242601883 5.771744589568254 9.600189932026195 1 -1 0
5900 24 1 0.3607077609119011 4.7356895214527945 8.354395147554543 2 -1 0
5898 24 1 0.38308455352197524 3.941139108379093 9.350293274523658 2 -1 0
5810 24 1 2.3555176555435318 4.580138053235948 10.125947765243247 2 -1 0
4692 19 1 2.9752206553232905 3.793876464055144 6.262847815480745 1 0 0
1153 5 1 0.7325424191956442 3.2686995244505437 5.29173609966668 1 0 0
5815 24 1 3.833586070168029 3.523507516876065 9.677390839668362 2 -1 0
5912 24 1 3.4579155397424204 5.745406262178301 7.7538438139535675 2 -1 0
6076 25 1 2.5918786740453705 5.404466040070735 9.100365325731303 1 0 0
568 3 1 4.728562111766504 3.062710805143206 10.344018323723752 1 0 0
5814 24 1 4.214050730194688 4.293497726464872 9.368391801455969 2 -1 0
1157 5 1 2.117268493491462 3.7613053847478626 6.932367389023351 1 0 0
6086 25 1 0.05719441571486743 3.9128806645839047 6.872703526404673 1 0 0
6083 25 1 0.7298092821131905 5.557343207754569 7.483322305687832 1 0 0
4693 19 1 3.35227308548769 3.7030885657419033 7.124641778484241 1 0 0
1155 5 1 1.0391977046606025 3.973955679539823 6.151147989522468 1 0 0
4690 19 1 4.1528374160663875 4.517848180551907 6.989495078799309 1 0 0
5908 24 1 3.1047841595266377 4.7439179740019535 7.291216983468286 2 -1 0
841 4 1 5.017672056013745 4.303513108368413 8.019861254083281 1 -1 0
4691 19 1 3.5966135038275096 4.432687205018991 6.174898632948048 1 0 0
5871 24 1 0.2360145518406862 5.793690414563957 6.3888276026214434 2 -1 0
5907 24 1 2.5405337848090985 4.647224201570595 8.072008544254217 2 -1 0
572 3 1 5.042420099743257 4.4359046405690945 9.888442899932985 1 0 0
5903 24 1 1.886637966206511 4.445869111070754 9.168327479920023 2 -1 0
1880 8 1 3.359204078116609 5.641077321348754 6.544889049020959 1 0 0
571 3 1 5.190194114079799 4.087810599335803 8.969545425992203 1 0 0
564 3 1 3.3541581880304836 4.914011734400504 10.032891612468386 1 0 0
5809 24 1 1.939098686586348 5.409715569110362 9.984145575160534 2 -1 0
5813 24 1 3.6840079568523687 4.893739214317903 8.8462684502648 2 -1 0
5906 24 1 1.6939116112585841 4.086847332088823 7.9249094778944595 2 -1 0
5811 24 1 2.5308096555495996 3.6676970246996325 9.701347127352294 2 -1 0
5541 23 1 1.1633872051364027 3.486807711123708 9.979245484897081 2 0 -1
5902 24 1 1.215662678359933 4.553829343707033 9.883249520938925 2 -1 0
4694 19 1 3.4410760388069455 4.009421278123673 8.046665918854433 1 0 0
1879 8 1 2.8225836951890715 5.742971378663208 5.801382038773039 1 0 0
6084 25 1 0.7803260422452946 4.601542573716004 7.29753445242007 1 0 0
1159 5 1 2.34692089825801 4.820224885197188 6.314386142244312 1 0 0
5905 24 1 1.5467662745688073 5.046408366733642 8.08557984325326 2 -1 0
4689 19 1 4.469835044652295 5.42170717547893 6.791429388218799 1 0 0
836 4 1 3.962215799407327 5.182335853644251 5.543021976299475 1 -1 0
5899 24 1 0.8525701629978221 3.9323215015241213 8.470265322184177 2 -1 0
570 3 1 5.026485646260417 3.21977811003244 9.191985346237258 1 0 0
5911 24 1 2.5385052349023085 5.748439532443806 8.060767561220933 2 -1 0
5909 24 1 2.536948333863182 5.498833298489479 7.122133340410879 2 -1 0
5812 24 1 3.0338395825417366 4.190893516192792 9.021255884427188 2 -1 0
1158 5 1 1.8121031704849853 4.665632131893694 7.093898998615198 1 0 0
842 4 1 4.525150255969251 5.1083185678451954 8.404383172906746 1 -1 0
5870 24 1 0.6179991621732732 5.045680496193698 5.986399191371262 2 -1 0
566 3 1 4.200427211514941 4.189310055037375 10.411198510854575 1 0 0
837 4 1 4.844993478409248 5.36637725769618 5.645438595811749 1 -1 0
7317 30 1 2.290015128767901 3.4618500116935653 5.529993544697812 1 1 0
5904 24 1 1.5688849088597052 5.375679572568939 9.026038845565965 2 -1 0
5901 24 1 0.5648062373190169 4.936545810285038 9.255846395206792 2 -1 0
5874 24 1 1.3604776356408577 6.040398675386228 6.1046408683142745 2 -1 0
1152 5 1 0.19019634906330657 3.2017112419045923 6.087209013138092 1 0 0
848 4 1 4.680305287538119 5.946440502533862 7.907628380133881 1 -1 0
4695 19 1 4.178520259366779 3.6607229846709597 8.491869451795793 1 0 0
1156 5 1 1.3416647388560163 3.2036087345371618 6.732982722885521 1 0 0
838 4 1 4.821296724763871 4.545448605549836 6.147278747041369 1 -1 0
5910 24 1 1.759450590439625 5.843552173023566 7.516150110097545 2 -1 0
1161 5 1 2.738043693091665 4.503685585476572 5.384022894928901 1 0 0
1160 5 1 1.9968707790178701 5.164309841846515 5.370744616496572 1 0 0